# vtk DataFile Version 5.1
vtk output
ASCII
DATASET UNSTRUCTURED_GRID
POINTS 3066 double
53.7138 36.2779 -7.0122 50.845 40.1428 -24.7334 50.819 40.5268 -27.8982 
48.7264 42.6156 -24.8937 14.093 33.7666 -6.9977 21.3846 12.3467 -11.815 
14.6337 40.9403 -6.6057 11.668 43.9738 -5.4704 13.9106 40.9353 -7.3833 
28.2024 58.5629 2.8518 49.8382 41.3054 -9.9629 7.86003 43.9507 -8.8867 
0 14.657 -4.57375 15.9098 32.4634 -4.5972 16.6359 14.8597 -15.4786 
19.0632 14.8675 -13.1176 17.8766 16.5581 -12.7144 0 21.6986 -16.0093 
53.6901 36.5587 -22.2098 52.6142 37.959 -24.0763 18.4275 44.5324 2.8518 
10.9813 6.34018 -1.28087 25.2555 14.5817 1.05681 11.7414 40.9205 -9.7161 
9.97313 40.9152 -10.8923 53.418 37.0054 -18.3789 3.45353 30.9201 -13.4994 
5.82822 29.1945 -13.0687 3.28724 9.03162 -0.0301673 7.456 10.238 -0.974447 
50.819 40.5268 2.8518 12.1938 63.4792 -7.9606 53.2319 37.2575 -10.241 
9.99884 36.7658 -11.0249 11.82 39.4104 -9.6472 23.2455 13.4211 -7.7726 
24.492 59.9539 -2.84005 25.3334 59.5945 -5.18742 23.7023 60.189 -5.72658 
17.8218 12.9171 -15.4786 19.0077 10.9744 -15.4786 20.1961 11.6606 -13.6468 
21.1716 61.0249 -6.5855 5.23789 64.6273 -8.8898 22.4856 60.7374 -3.96471 
23.037 18.4656 1.05681 24.5895 19.7098 2.8518 10.364 10.364 -4.57376 
36.6158 53.7056 2.8518 20.1175 16.8802 -9.7293 20.2239 13.6071 -12.4663 
7.79008 13.4928 -15.1257 38.6807 52.1534 -6.2771 8.20486 40.9099 -12.0684 
5.65288 11.1727 -0.989457 5.561 13.4254 -4.57376 3.84976 12.1073 -1.00447 
39.8192 51.3307 -0.751717 40.5267 50.8191 2.8518 0 46.2533 2.8518 
18.2494 22.3496 -3.32193 18.3599 24.0994 1.12364 17.1617 24.0995 -3.0694 
12.0532 24.0995 -10.0641 14.6334 25.7186 -6.606 11.741 25.7186 -9.7162 
6.17799 7.36265 -0.0301673 12.3868 7.1517 -4.57376 47.6483 44.2113 2.8518 
44.2112 47.6484 -27.8982 46.1844 45.3498 -24.7028 53.7055 36.6158 2.8518 
13.6738 29.0911 -7.8071 19.8686 41.0277 2.8518 24.5461 14.1721 -3.44773 
19.9734 21.7426 1.05689 18.723 21.7424 -3.49266 0 15.5801 -15.1257 
0 17.0939 -16.5127 20.0304 25.165 2.8518 21.1456 23.4152 2.8518 
14.4961 8.36953 -16.5127 13.1859 7.61305 -15.1257 15.0203 24.0995 -6.8683 
18.9013 19.3934 -7.5159 41.7998 49.4636 -22.6998 5.05129 64.7309 -10.6018 
21.3196 23.2076 2.8518 8.0194 4.6301 -0.0301673 11.7693 16.1989 -16.5128 
17.8946 25.7185 1.174 7.32849 12.6933 -4.57376 49.63 41.9085 -4.8357 
4.31032 64.7446 0.301923 14.4639 63.3703 2.8518 5.02319 27.4566 -13.301 
55.9622 32.3107 2.8518 44.2112 47.6484 2.8518 7.96361 29.2108 -12.0135 
10.099 29.2272 -10.9583 1.92488 12.5702 -1.14267 0 9.61128 -0.0301673 
14.9988 63.0615 -0.172198 6.2115 40.9068 -12.8009 4.21815 40.9037 -13.5334 
4.76279 37.0496 -13.3783 26.2102 59.3553 0.453613 27.0007 58.8796 -3.57101 
53.4574 36.9519 -1.11207 53.8008 36.3697 -23.2995 9.15057 22.3495 -13.3459 
4.98353 21.7423 -15.4786 9.38871 21.7424 -13.789 8.54693 14.8037 -16.5127 
41.0558 50.0638 -3.0995 38.4877 52.3082 -2.55347 4.35799 64.7592 -23.2718 
5.4037 64.7219 -17.5078 0 40.9018 -14.0309 25.4084 59.594 -25.3658 
25.3805 59.5483 -22.1495 0 65 2.8518 0 25.7184 -14.0311 
32.2422 56.295 0.737123 3.79351 14.1575 -4.57376 9.84258 63.9421 -7.2813 
19.1591 62.1123 -27.8982 8.2048 25.7186 -12.0686 8.42353 24.0995 -12.4812 
7.25788 37.8141 -12.2373 23.7472 60.5068 2.8518 9.68772 64.2739 -27.8982 
15.0187 28.0793 -5.82505 30.2331 57.117 -22.4062 37.5957 52.8948 0.0610426 
31.3909 56.5861 -2.22376 15.6784 40.9567 -4.7568 0 24.0994 -14.498 
12.0872 12.0872 -16.5127 23.7472 60.5068 -27.8982 38.4627 52.3357 -25.4658 
4.03245 15.0493 -15.1257 19.4724 22.3498 1.1083 13.2543 17.9413 -15.4786 
11.0168 11.0168 -15.1257 26.9775 15.5759 2.8518 17.309 41.0004 -0.866627 
14.175 44.0232 -1.02932 13.4687 43.9959 -2.96238 17.8949 41.0277 1.17464 
36.6158 53.7056 -27.8982 19.1591 62.1123 2.8518 8.14413 18.2919 -16.5128 
4.16307 19.5855 -16.5128 0 20.0222 -16.5127 2.49558 21.8387 -15.7974 
4.85924 22.3496 -14.991 4.3308 24.0995 -13.9867 21.3798 18.7289 -4.44748 
16.3479 62.7689 -25.7695 8.97783 34.7653 -11.6084 2.75227 28.1226 -13.6513 
9.65395 63.9515 -23.3861 4.85745 64.8184 -27.8982 47.6483 44.2113 -27.8982 
40.5267 50.8191 -27.8982 17.0315 9.83342 -16.5128 52.2622 38.5713 -27.8982 
55.9622 32.3107 -27.8982 19.8684 25.7184 2.8518 32.5 56.2917 2.8518 
13.2819 21.7424 -11.1235 17.054 20.9822 -7.9433 16.0328 22.3495 -7.348 
14.88 13.398 -16.5128 4.21816 25.7186 -13.5334 9.68772 64.2739 2.8518 
30.4752 57.1946 -25.4312 28.2024 58.5629 -27.8982 12.9438 22.3495 -10.7509 
0 43.9405 -11.0714 26.3771 59.2392 -6.4352 21.7912 61.0866 0.349633 
28.9686 57.7144 -19.0976 13.1474 63.5903 -0.975928 10.8818 64.048 2.8518 
17.6762 62.4452 -26.479 14.9532 46.0489 2.8518 21.9004 60.9566 -25.5276 
20.031 61.533 -23.3749 6.56421 64.4721 -22.4081 12.8685 43.9885 -3.79839 
12.0558 34.8802 -9.4405 9.31506 20.2681 -15.4786 16.723 25.7186 -2.90841 
9.46391 43.9585 -7.5965 16.723 40.9731 -2.9079 16.6899 18.2487 -12.3113 
0 44.254 0.904073 53.7055 36.6158 -27.8982 22.0267 61.1089 2.8518 
38.2497 52.4644 -8.199 14.8814 44.0505 0.903733 4.85745 64.8184 2.8518 
11.8309 63.8104 -4.80367 0 13.0331 -1.28087 52.5671 38.0043 -7.5327 
52.9723 37.5349 -5.16107 0 65 -27.8982 22.4987 60.5312 -18.1084 
14.4639 63.3703 -27.8982 4.07911 43.9428 -10.5149 32.5 56.2917 -27.8982 
4.42422 16.5114 -16.5127 11.0678 43.9664 -6.3064 34.3164 54.9613 -25.8837 
4.05036e-06 -3.50749e-05 -0.0301673 4.05036e-06 -3.50749e-05 -27.8982 0 65 -24.8232 
0 65 -21.7482 0 65 -18.6732 0 65 -15.5982 
0 65 -12.5232 0 65 -9.4482 0 65 -6.3732 
0 65 -3.2982 0 65 -0.223197 4.84999 64.7417 -20.5599 
2.42873 64.9092 -27.8982 4.59298 64.7871 -25.4485 5.14322 64.7286 -12.4033 
5.26849 64.7254 -14.8582 6.01819 64.5896 -20.1025 7.2557 64.3849 -25.6421 
5.76118 64.635 -24.9912 9.67084 64.1127 -25.6421 2.4784 64.9073 2.8518 
12.5516 63.6899 -2.70823 7.79648 64.4871 2.8518 12.095 63.8185 -27.8982 
11.8472 63.853 1.22083 18.6604 62.0639 -25.1816 21.2553 61.036 -20.7621 
16.9539 62.7031 -27.8982 19.4368 61.8248 -26.0825 16.8115 62.7413 2.8518 
26.2453 59.2961 -8.42678 26.072 59.3721 -11.0372 25.8891 59.4496 -13.8071 
25.7196 59.4824 -16.5879 25.5501 59.5154 -19.3687 26.6049 59.1178 -1.55573 
25.7053 59.6525 2.8518 53.2147 37.2454 -3.22256 55.9622 32.3107 -0.223197 
55.9622 32.3107 -3.2982 55.9622 32.3107 -6.3732 55.9622 32.3107 -9.4482 
55.9622 32.3107 -12.5232 55.9622 32.3107 -15.5982 55.9622 32.3107 -18.6732 
55.9622 32.3107 -21.7482 55.9622 32.3107 -24.8232 54.8339 34.4633 2.8518 
53.3262 37.1298 -15.654 53.2661 37.2112 -12.9267 53.5874 36.7272 -20.7645 
54.7904 34.5461 -27.8982 53.763 36.4674 -25.1247 0 62.0455 -27.8982 
0 59.0909 -27.8982 0 56.1364 -27.8982 0 53.1818 -27.8982 
0 50.2273 -27.8982 0 47.2727 -27.8982 0 44.3182 -27.8982 
0 41.3636 -27.8982 0 38.4091 -27.8982 0 35.4545 -27.8982 
0 32.5 -27.8982 0 29.5454 -27.8982 0 26.5909 -27.8982 
0 23.6363 -27.8982 0 20.6818 -27.8982 0 17.7272 -27.8982 
0 14.7727 -27.8982 0 11.8182 -27.8982 0 8.86361 -27.8982 
-1.04105e-07 5.90906 -27.8982 1.10409e-06 2.95451 -27.8982 0 44.0193 -8.06396 
0 44.098 -5.05651 0 44.1767 -2.04945 0 28.1424 -14.031 
0 31.2515 -14.031 0 34.4663 -14.031 0 37.684 -14.0309 
0 49.3287 2.8518 0 52.463 2.8518 0 55.5972 2.8518 
0 58.7315 2.8518 0 61.8657 2.8518 0 14.8983 -7.33186 
0 15.1396 -10.09 0 15.3756 -12.7881 8.07186e-07 -3.69473e-05 -24.8017 
1.03138e-06 -3.68612e-05 -21.7053 9.24133e-08 -3.5235e-05 -18.6089 -1.0046e-08 -3.50575e-05 -15.5124 
0 -3.50619e-05 -12.416 0 -3.65336e-05 -9.31951 0 -3.68445e-05 -6.22306 
2.17848e-07 -3.57374e-05 -3.12662 0 13.7679 -2.77096 4.82687e-07 3.20374 -0.0301673 
0 6.40751 -0.0301673 38.3791 52.3912 -22.8213 38.2935 52.4478 -19.8389 
38.2181 52.4971 -16.7938 38.1937 52.5105 -13.7476 38.2117 52.4942 -10.7013 
40.0418 50.9766 -24.1569 43.0055 48.556 -25.299 45.9298 45.9298 -27.8982 
38.5896 52.2265 -4.51858 49.3196 42.2692 -27.8982 53.2412 37.143 -22.9886 
52.4445 38.2542 -25.9188 49.7341 41.6069 -7.39929 42.3689 49.2337 2.8518 
45.9298 45.9298 2.8518 48.3089 43.4437 0.289304 48.9694 42.6761 -2.2732 
49.2337 42.3691 2.8518 52.2623 38.5713 2.8518 12.9327 40.9286 -8.43492 
11.9165 37.5556 -9.56252 12.8796 31.9327 -8.60884 15.5075 35.1358 -5.23038 
15.1184 37.7206 -5.84283 14.8178 39.7175 -6.31598 14.7713 30.7464 -6.23157 
5.34627 3.08673 -0.0301673 2.67314 1.54334 -0.0301673 13.0072 7.5099 -12.7664 
12.7983 7.38929 -10.0078 12.5896 7.26875 -7.2509 2.54374 1.46864 -27.8982 
5.08747 2.93731 -27.8982 7.63121 4.40598 -27.8982 10.1749 5.87465 -27.8982 
12.7187 7.34333 -27.8982 15.2624 8.812 -27.8982 17.8061 10.2807 -27.8982 
20.3499 11.7493 -27.8982 22.8936 13.218 -27.8982 25.4374 14.6866 -27.8982 
27.9811 16.1553 -27.8982 30.5248 17.624 -27.8982 33.0686 19.0927 -27.8982 
35.6123 20.5613 -27.8982 38.1561 22.03 -27.8982 40.6998 23.4987 -27.8982 
43.2435 24.9674 -27.8982 45.7872 26.436 -27.8982 48.331 27.9047 -27.8982 
50.8747 29.3734 -27.8982 53.4185 30.842 -27.8982 22.2126 12.8248 -10.0163 
23.8958 13.7966 -5.61016 24.9059 14.3799 -1.16297 53.3191 30.7846 2.8518 
50.676 29.2586 2.8518 48.0328 27.7326 2.8518 45.3897 26.2065 2.8518 
42.7466 24.6805 2.8518 40.1035 23.1544 2.8518 37.4604 21.6284 2.8518 
34.8173 20.1023 2.8518 32.1741 18.5763 2.8518 29.54 17.0554 2.8518 
19.5224 15.7442 -11.6418 21.6815 15.1507 -8.75089 42.3689 49.2337 -27.8982 
38.5712 52.2623 -27.8982 34.5579 54.9986 -27.8982 30.3512 57.4273 -27.8982 
25.9748 59.5349 -27.8982 21.2334 61.3864 -27.8982 7.27259 64.5462 -27.8982 
21.6351 22.8701 2.8518 22.1728 22.295 2.8518 23.0891 21.3148 2.8518 
20.4246 24.5464 2.8518 20.8753 23.8393 2.8518 25.7795 17.65 2.8518 
19.8686 38.2348 2.8518 19.8685 35.3248 2.8518 19.8685 32.4149 2.8518 
19.8685 29.7113 2.8518 19.8684 27.6737 2.8518 19.8684 26.4499 2.8518 
38.5712 52.2623 2.8518 30.5154 57.3405 2.8518 34.4209 55.0847 2.8518 
2.96674 46.2128 2.8518 5.98894 46.1714 2.8518 9.0147 46.1301 2.8518 
12.0405 46.0887 2.8518 12.2717 63.785 2.8518 27.1746 58.6314 -20.6235 
32.3021 56.1324 -25.6464 12.3152 43.0969 -6.02242 13.248 41.8331 -6.81809 
[...]
POINT_DATA 3066
SCALARS TEMPERATURE double
LOOKUP_TABLE default
235.061 434.167 473.727 436.171 234.988 272.687 233.028 227.352 236.916 
200 249.814 244.433 222.869 222.986 318.482 288.97 283.93 325.116 
402.622 425.954 200 206.404 200 248.58 261.154 354.736 293.742 
288.359 200.151 204.872 200 239.803 253.012 262.811 248.236 238.863 
214.2 225.937 228.633 318.482 318.482 295.585 232.927 244.449 219.824 
200 200 222.869 200 248.646 280.829 314.071 231.385 275.855 
204.947 222.869 205.022 203.759 200 200 216.61 200 215.347 
250.801 233.03 248.581 200.151 222.869 200 473.727 433.785 200 
239.035 200 217.239 200 217.463 314.071 331.409 200 200 
331.409 314.071 234.341 237.579 408.747 257.522 200 200.151 331.41 
200 222.869 224.178 200 200 291.262 200 200 275.169 
261.979 205.713 200.151 200.861 285.011 294.167 292.229 200 217.855 
205.56 416.244 291.824 318.482 297.362 331.409 215.497 212.767 415.897 
343.847 300.386 442.072 401.869 200 300.389 200 222.869 236.406 
473.727 275.857 281.015 277.966 200 473.727 229.125 405.077 200 
211.119 223.784 306.225 331.409 473.727 443.322 314.071 200 318.482 
314.071 200 204.333 205.147 214.812 200 473.727 200 331.41 
331.41 331.409 322.467 312.387 299.834 222.237 447.119 270.105 295.641 
417.326 473.727 473.727 473.727 331.41 473.727 473.727 200 200 
264.044 239.716 236.74 331.41 294.167 200 442.89 473.727 259.386 
263.392 232.176 200 363.72 204.88 200 455.987 200 444.095 
417.186 405.101 218.992 247.202 318.482 214.542 237.982 214.539 278.891 
200 473.727 200 240.995 200 200 224.018 206.404 237.663 
225.805 473.727 351.355 473.727 256.436 473.727 331.409 231.532 448.546 
200.151 473.727 435.29 396.852 358.415 319.977 281.54 247.241 231.866 
216.491 201.116 381.998 473.727 443.106 280.041 310.728 376.282 445.527 
437.39 445.527 200 213.541 200 473.727 200 439.77 384.526 
473.727 451.031 200 242.134 262.965 297.588 332.349 367.109 207.779 
200 216.113 201.116 216.491 231.866 247.241 281.54 319.977 358.415 
396.852 435.29 200 320.676 286.584 384.556 473.727 439.058 473.727 
473.727 473.727 473.727 473.727 473.727 473.727 473.727 473.727 473.727 
473.727 473.727 473.727 473.727 473.727 473.727 473.727 473.727 473.727 
473.727 473.727 240.32 225.283 210.247 300.388 300.387 300.387 300.387 
200 200 200 200 200 236.659 251.125 284.852 435.022 
396.316 357.611 318.905 280.199 246.598 231.115 215.633 213.855 200.151 
200.151 410.266 372.986 334.922 296.845 258.766 426.962 441.237 473.727 
222.593 473.727 412.358 448.985 236.996 200 200 200 211.366 
200 200 242.175 247.813 243.044 226.152 229.214 231.58 231.158 
200.151 200.151 284.58 250.098 236.255 473.727 473.727 473.727 473.727 
473.727 473.727 473.727 473.727 473.727 473.727 473.727 473.727 473.727 
473.727 473.727 473.727 473.727 473.727 473.727 473.727 473.727 250.204 
228.051 205.815 200 200 200 200 200 200 200 
200 200 200 270.522 243.754 473.727 473.727 473.727 473.727 
473.727 473.727 473.727 200 200 200 200 200 200 
200 200 200 200 200 200 200 200 200 
200 200 200 200 200 382.794 445.58 230.112 234.09 
231.358 228.984 223.172 248.143 200 200 200 200 222.869 
234.571 248.841 283.032 314.071 302.859 214.637 269.492 253.222 289.468 
290.856 292.371 293.273 297.368 297.06 219.741 208.29 200 205.56 
212.952 200 200 200 200 200 236.581 250.732 284.788 
222.869 283.184 249.011 234.727 314.071 214.039 214.06 204.865 216.099 
212.343 205.535 200 200 240.805 242.331 217.098 220.042 219.807 
216.825 204.336 200 200 200 200 200 314.071 218.421 
219.913 224.844 223.786 221.102 228.563 235.431 314.071 331.41 331.409 
331.409 331.41 331.41 331.409 331.41 331.409 331.409 200 281.867 
269.756 266.055 288.341 261.155 253.486 202.851 295.784 302.105 308.426 
314.434 307.921 301.41 255.796 277.002 214.06 214.023 303.124 214.366 
265.908 200 287.454 285.576 275.605 265.635 255.915 200 318.482 
307.312 310.44 316.204 243.652 249.958 255.28 246.131 200 290.976 
280.704 270.43 200 200 319.992 252.777 228.908 223.016 318.482 
318.482 305.535 297.683 247.005 246.15 243.736 318.482 271.903 266.988 
250.065 263.973 285.012 290.424 214.747 214.648 204.746 218.433 235.688 
214.039 242.264 235.953 312.333 298.534 200 220.925 244.451 249.404 
200 235.328 233.084 200 200.711 203.833 204.07 214.216 200 
222.765 232.505 237.27 247.168 200 278.075 311.822 385.382 202.204 
222.427 237.154 267.69 298.194 436.681 342.426 412.09 386.187 386.613 
423.656 351.811 443.924 451.093 384.073 354.524 324.601 293.397 257.771 
246.279 217.194 238.118 258.663 245.185 249.321 211.465 414.298 451.805 
323.425 422.577 393.859 235.369 208.88 248.971 229.514 289.905 383.811 
355.832 361.741 334.441 305.112 275.269 245.405 211.2 226.411 242.18 
409.758 311.999 270.018 292.278 354.762 317.866 327.994 272.124 206.989 
429.109 200 222.283 387.479 217.121 425.167 400.621 374.61 337.439 
301.806 265.757 225.299 211.048 240.993 200 448.936 406.804 299.606 
260.087 338.258 238.22 378.256 223.561 415.407 210.636 448.106 213.07 
214.344 439.63 214.984 442.241 440.263 226.772 442.639 444.202 243.773 
441.704 270.812 441.25 306.606 441.744 337.892 441.122 356.207 439.772 
350.245 440.308 342.99 441.744 322.708 441.744 441.744 331.093 441.744 
335.073 441.744 335.217 441.334 335.457 441.535 307.942 445.286 247.984 
232.885 217.644 413.015 200.757 379.757 340.149 300.759 200 262.321 
200 239.553 200 223.673 200 208.964 200 441.764 364.605 
339.374 281.947 319.164 278.683 246.124 360.032 228.87 402.116 227.165 
408.731 406.712 403.806 238.492 416.994 412.463 257.208 405.929 295.423 
411.502 410.298 406.028 405.33 406.097 408.17 410.328 409.786 369.826 
408.558 370.265 409.564 369.951 408.527 407.666 240.8 225.387 211.731 
362.186 321.527 281.54 215.757 247.241 213.471 231.314 214.322 335.253 
371.506 381.284 355.371 372.12 316.559 348.614 264.027 288.318 347.078 
258.972 378.392 373.487 377.478 375.998 383.561 374.785 375.579 370.299 
233.278 342.512 301.422 262.321 239.054 225.247 371.754 300.135 249.633 
228.596 340.383 326.145 280.866 244.875 281.904 312.691 241.282 316.826 
345.55 379.08 385.809 385.356 400.808 433.415 200.213 223.711 241.034 
272.087 200 315.626 352.875 390.414 200 209.845 222.336 212.053 
200 232.983 228.035 244.826 244.115 402.482 214.353 269.861 304.551 
338.629 402.915 375.386 398.859 403.952 231.231 209.28 374.032 289.794 
272.489 292.454 335.577 235.878 327.477 361.252 359.805 368.525 248.756 
222.504 256.226 359.642 313.945 314.012 234.844 292.749 274.306 334.07 
222.902 246.604 200 443.666 237.652 239.592 243.63 237.691 378.835 
416.288 447.996 339.196 300.759 262.321 439.911 239.553 441.931 223.608 
441.931 208.79 441.931 200 441.931 441.931 200 441.931 200 
441.931 200 441.931 200 442.307 200 442.296 200 442.302 
200 441.931 200 439.919 200 439.242 200.236 440.676 441.419 
441.462 215.336 445.187 232.302 248.962 412.346 277.058 379.075 295.154 
338.258 322.762 299.313 353.869 260.847 361.55 238.324 338.858 223.416 
309.025 210.634 271.427 244.279 212.882 231.486 214.748 219.043 442.787 
368.471 402.496 359.681 321.261 281.54 247.241 409.008 231.191 409.864 
214.156 409.864 409.864 409.864 409.864 409.864 212.903 409.864 212.954 
410.053 212.082 410.235 212.082 411.065 212.082 411.792 212.08 410.697 
211.739 402.087 212.663 406.6 408.311 410.357 407.657 227.395 251.005 
283.167 314.21 362.468 317.7 350.753 277.637 245.834 229.077 295.27 
255.994 235.957 227.648 349.08 335.244 372.144 377.302 342.963 302.036 
262.321 238.804 378.227 225.047 378.156 376.324 377.797 377.797 377.797 
377.797 228.427 377.72 225.453 377.914 225.207 379.469 225.207 225.458 
225.542 381.976 223.393 375.681 287.556 315.908 347.896 286.456 240.661 
346.686 380.87 238.57 257.407 319.783 280.011 245.958 340.551 345.153 
345.73 344.145 342.245 344.232 347.499 238.608 238.332 238.099 239.362 
237.796 264.694 299.808 257.442 316.546 310.194 313.663 308.552 304.078 
251.461 250.073 253.174 259.744 283.469 285.5 281.708 276.237 382.24 
352.298 240.277 316.488 319.451 380.812 258.552 473.727 473.727 473.727 
473.727 473.727 473.727 473.727 473.727 473.727 473.727 473.727 473.727 
473.727 473.727 473.727 473.727 473.727 473.727 473.727 473.727 473.727 
473.727 473.727 473.727 473.727 473.727 473.727 473.727 473.727 473.727 
473.727 473.727 473.727 473.727 473.727 473.727 473.727 473.727 473.727 
473.727 473.727 473.727 473.727 473.727 473.727 473.727 473.727 473.727 
473.727 473.727 473.727 473.727 473.727 473.727 473.727 473.727 473.727 
473.727 473.727 473.727 473.727 473.727 473.727 473.727 473.727 473.727 
473.727 473.727 473.727 473.727 473.727 473.727 473.727 473.727 473.727 
473.727 473.727 473.727 473.727 473.727 473.727 473.727 473.727 473.727 
473.727 473.727 473.727 473.727 473.727 473.727 473.727 473.727 473.727 
473.727 473.727 473.727 473.727 473.727 473.727 473.727 473.727 473.727 
473.727 473.727 473.727 473.727 473.727 473.727 473.727 473.727 473.727 
473.727 473.727 473.727 473.727 473.727 473.727 473.727 473.727 473.727 
473.727 473.727 473.727 473.727 473.727 473.727 473.727 473.727 473.727 
473.727 473.727 473.727 473.727 473.727 473.727 473.727 473.727 473.727 
473.727 473.727 473.727 473.727 473.727 473.727 473.727 473.727 473.727 
473.727 473.727 473.727 473.727 473.727 473.727 473.727 473.727 473.727 
473.727 473.727 473.727 473.727 473.727 473.727 473.727 473.727 473.727 
473.727 473.727 473.727 473.727 473.727 473.727 473.727 473.727 473.727 
473.727 473.727 473.727 473.727 473.727 473.727 473.727 473.727 473.727 
473.727 473.727 473.727 473.727 473.727 473.727 473.727 473.727 473.727 
473.727 473.727 473.727 473.727 473.727 473.727 473.727 473.727 473.727 
473.727 473.727 473.727 473.727 473.727 473.727 473.727 473.727 473.727 
473.727 473.727 473.727 473.727 473.727 473.727 473.727 473.727 473.727 
473.727 473.727 473.727 473.727 473.727 473.727 473.727 473.727 473.727 
473.727 473.727 473.727 473.727 473.727 473.727 473.727 473.727 473.727 
473.727 473.727 473.727 473.727 473.727 473.727 473.727 473.727 473.727 
473.727 473.727 473.727 473.727 473.727 473.727 473.727 473.727 473.727 
473.727 473.727 473.727 473.727 200 200 200 200 200 
200 200 200 200 200 200 200 200 200 
200 200 200 200 200 200 200 200 200 
200 200 200 200 200 200 200 200 200 
200 200 200 200 200 200 200 200 200 
200 200 200 200 200 200 200 200 200 
200 200 200 200 200 200 200 200 200 
200 200 200 200 200 200 200 200 200 
200 200 200 200 200 200 200 200 200 
200 200 200 200 200 200 200 200 200 
200 200 200 200 200 200 200 200 200 
200 200 200 200 200 200 200 200 200 
200 200 200 200 200 200 200 200 200 
200 200 200 200 200 200 200 200 200 
200 200 200 200 200 200 200 200 200 
200 200 200 200 200 200 200 200 200 
200 200 200 200 200 200 200 200 200 
200 200 200 200 200 200 200 200 200 
200 200 200 200 200 200 441.271 418.524 438.31 
375 394.149 353.529 314.492 275.245 344.01 245.454 230.186 279.556 
248.642 237.859 227.405 200 213.137 200 200 205.355 406.804 
335.209 312.687 223.482 220.438 342.902 285.069 253.084 235.884 260.222 
238.266 227.545 371.639 295.771 241.492 314.01 214.927 239.505 230.231 
235.671 228.269 211.842 216.914 207.639 224.457 209.174 206.661 220.64 
217.51 243.608 210.048 224.178 280.275 244.865 231.104 200 255.45 
295.817 296.752 297.484 296.046 206.944 200.151 200.151 200 200 
200 200 280.353 244.898 231.124 201.223 209.194 245.7 203.068 
206.174 204.715 208.982 205.336 206.89 279.84 245.562 232.916 212.378 
213.817 203.419 200 207.36 229.23 228.708 232.488 223.748 235.286 
282.185 331.409 331.409 331.41 331.41 331.409 331.409 331.409 331.409 
200 231.143 280.409 276.371 266.132 279.825 298.507 214.141 271.335 
200 223.905 265.673 277.629 200 200 324.828 324.78 309.882 
323.858 324.713 299.928 246.314 239.235 300.13 291.851 280.113 247.23 
210.3 231.044 222.772 202.645 256.23 210.181 324.8 447.081 293.343 
300.731 434.109 427.778 365.297 438.508 402.755 328.795 318.977 439.499 
381.461 334.263 346.802 341.075 293.274 282.359 311.434 361.927 441.197 
381.947 441.281 408.942 317.656 340.415 312.615 303.003 323.604 262.957 
246.792 291.702 346.627 431.703 442.171 442.813 446.328 375.319 439.894 
407.171 294.781 342.05 258.449 302.036 262.603 239.1 327.024 439.718 
432.459 440.832 440.63 428.019 443.406 442.057 446.974 375.034 411.949 
308.002 246.638 244.111 239.996 231.141 257.748 282.43 239.46 366.38 
317.49 434.424 437.22 441.121 441.886 439.819 442.148 443.553 265.38 
298.768 239.33 235.946 345.376 237.362 215.928 281.76 219.09 335.564 
371.569 415.956 298.566 439.149 427.655 444.051 436.158 440.418 448.224 
443.452 441.256 448.488 426.765 313.888 258.157 239.684 279.519 225.545 
217.683 222.832 370.172 328.214 224.854 204.149 200.462 202.437 232.379 
257.112 208.175 200 354.914 391.558 420.265 287.246 435.843 445.272 
440.879 440.364 442.044 443.4 443.468 440.069 443.088 385.835 441.216 
293.324 227.517 235.151 262.484 205.737 201.96 213.915 343.086 307.719 
215.438 200 316.154 385.885 419.301 440.638 427.507 436.276 434.211 
440.691 443.299 446.595 443.035 443.459 442.903 400.56 441.916 275.207 
218.952 226.932 245.008 203.13 207.737 350.47 298.838 204.695 200.521 
384.277 323.429 417.809 277.05 248.335 441.436 441.249 436.339 443.662 
438.301 443.404 438.661 439.024 443.459 442.952 443.459 438.473 386.899 
433.942 249.403 232.914 220.788 200 323.717 355.944 291.541 200 
214.756 200 358.478 327.903 410.379 305.151 319.836 243.119 261.996 
293.667 440.931 440.646 443.916 438.115 440.417 440.491 443.465 443.459 
443.029 443.459 449.176 244.168 208.319 320.716 374.84 205.15 200 
200 226.832 204.687 324.968 313.697 362.816 323.013 389.965 235.484 
306.546 249.411 290.304 440.496 438.17 431.277 446.919 442.301 444.416 
437.748 432.864 440.622 443.474 443.459 439.61 443.927 446.644 240.174 
200.622 211.961 200 200 200 202.241 353.25 397.376 200 
200 200 221.121 201.58 299.745 304.896 354.224 329.588 417.681 
228.284 273.842 272.855 439.602 433.659 439.465 441.373 439.486 440.649 
443.8 440.246 444.264 445.122 444.271 442.458 442.179 443.526 222.829 
206.875 201.63 200 200 200.119 200 335.302 372.452 232.903 
200 200 214.405 202.749 284.76 274.345 294.103 308.392 379.885 
351.213 322.604 419.393 232.424 221.715 250.34 250.602 434.596 440.491 
443.418 445.044 432.367 443.58 425.971 435.52 443.668 436.463 445.082 
443.468 443.563 200 200 202.049 200 200 314.338 356.486 
258.629 224.01 229.465 217.47 211.388 319.189 274.103 250.871 252.39 
282.773 299.697 383.553 340.621 399.656 240.294 224.535 240.051 429.82 
440.08 438.109 443.431 437.14 443.61 439.256 440.663 448.911 440.652 
446.903 215.511 200 200.421 202.532 200 200 200 335.945 
293.535 387.957 244.522 231.337 205.93 215.388 310.159 320.77 305.17 
258.126 264.458 244.809 235.023 242.848 268.563 360.896 411.361 233.72 
223.346 433.349 443.419 440.748 433.486 438.167 439.461 443.609 440.952 
440.235 435.411 435.333 443.382 439.406 444.176 201.415 213.615 200 
200 200.721 200.88 313.174 354.482 272.484 395.504 228.704 201.821 
213.009 222.186 316.662 240.726 247.668 233.211 234.716 221.853 232.766 
338.109 447.416 440.111 442.246 442.663 440.97 443.609 443.609 443.609 
438.429 441.772 435.52 441.392 444.177 443.671 440.415 443.69 442.9 
213.08 200 200 200.54 200 200 200 200.765 291.492 
333.745 381.524 242.697 225.269 211.975 310.985 301.831 235.204 230.011 
217.594 219.517 216.384 203.73 286.951 258.536 273.794 349.953 352.676 
337.031 394.002 448.686 443.202 452.009 443.589 443.631 443.63 445.736 
443.63 443.618 443.616 443.708 443.453 443.612 442.908 203.224 216.366 
201.133 200 202.327 200 200 200 307.001 344.107 268.749 
411.022 243.199 229.394 312.099 327.337 294.224 241.173 213.592 231.348 
248.053 203.151 280.88 329.097 300.19 363.556 356.335 347.419 352.05 
362.018 396.186 443.972 431.755 443.673 442.596 447.209 443.258 443.099 
443.299 218.06 200 200 200 200 200 200 286.532 
385.191 234.281 201.221 315.777 261.77 365.997 362.207 326.106 358.459 
336.313 414.001 450.741 436.322 216.39 200 200.854 200 202.013 
200 200 200 200.978 274.979 386.729 230.895 304.744 237.225 
246.598 210.874 222.069 200 200 273.407 260.782 302.17 263.392 
278.437 321.66 239.758 343.832 329.003 350.439 356.459 347.44 359.45 
419.948 448.46 420.976 420.609 420.553 420.553 418.857 416.729 421.836 
417.544 416.136 417.237 452.203 420.052 203.704 200.46 200 201.799 
200 200 200 200 283.672 319.746 358.283 248.554 234.425 
286.252 240.58 252.484 200 200 213.71 223.711 200.56 200 
200 278.552 241.092 249.216 339.124 224.929 325.331 349.276 357.401 
346.048 364.291 421.542 384.738 390.485 387.995 388.544 388.562 387.757 
395.254 394.238 390.348 377.715 382.905 376.42 416.152 388.347 202.365 
200 200 200.227 200 301.048 227.221 236.271 203.699 200 
200.521 200 200 299.702 296.544 303.684 272.093 238.815 259.736 
327.945 361.205 350.973 359.614 356.958 357.59 355.985 353.649 351.992 
355.16 340.459 355.614 351.054 357.366 359.676 363.725 360.865 351.106 
352.602 200 200 200 200 201.575 262.83 239.433 215.968 
219.287 269.093 245.772 200 200 206.137 200 200 200 
326.182 225.365 224.241 319.917 318.96 319.091 322.12 318.731 324.729 
324.383 330.492 328.838 318.25 325.241 200 200 200 247.237 
232.355 217.229 208.925 241.466 222.858 205.631 200 200 200 
330.191 299.983 210.258 216.976 280.039 288.204 285.911 284.295 293.479 
281.619 209.673 207.997 207.707 200 200 266.355 237.688 200.798 
246.487 265.271 246.768 249.448 249.233 249.954 264.136 241.707 222.278 
220.894 207.869 227.994 226.635 246.359 233.739 233.908 246.51 232.372 
234.47 233.042 234.353 222.366 329.486 391.449 299.267 342.895 402.28 
383.095 265.186 313.586 280.805 249.207 335.434 403.857 400.018 240.009 
359.397 405.057 268.227 233.822 230.711 232.057 215.891 387.331 396.394 
405.548 308.973 239.308 215.286 216.566 340.146 218.733 359.37 320.573 
387.449 400.413 361.897 280.606 222.276 307.689 392.337 390.188 393.644 
393.714 395.97 403.572 343.192 386.793 388.868 403.703 397.988 397.266 
401.598 236.287 231.602 357.917 346.896 250.041 401.425 397.057 401.571 
399.27 253.599 216.977 318.511 374.46 219.173 361.139 349.419 235.361 
338.23 249.061 311.024 393.524 392.376 403.864 401.932 395.151 394.272 
232.061 267.217 210.082 349.505 355.555 274.09 281.573 386.934 395.158 
402.485 389.736 398.89 413.128 401.935 217.605 217.272 218.097 357.369 
236.38 214.608 220.147 345.708 317.229 232.933 244.199 259.43 253.12 
393.151 414.544 401.204 393.895 213.96 311.193 289.949 276.659 222.716 
391.259 395.057 400.933 217.868 217.987 217.904 339.93 276.222 239.593 
330.318 330.325 278.923 245.025 245.368 306.272 391.774 401.72 403.07 
399.555 402.91 398.822 398.903 401.229 401.325 219.363 306.031 353.912 
218.517 231.76 232.381 217.813 362.8 402.842 405.362 417.862 398.107 
402.467 399.682 391.777 397.735 215.906 258.507 361.132 342.302 317.69 
229.348 210.209 213.88 360.545 395.203 405.033 216.08 218.376 320.961 
235.218 210.892 269.7 305.34 350.498 354.932 272.018 228.343 215.414 
219.878 333.389 246.062 222.513 365.649 222.873 219.856 236.266 285.912 
213.318 208.044 295.314 372.389 367.904 368.073 359.742 364.585 217.072 
218.822 208.709 249.349 212.209 343.887 343.983 355.086 326.84 346.829 
219.6 296.035 303.165 249.713 264.397 259.125 251.124 244.848 230.088 
386.427 312.739 231.892 286.689 384.365 243.743 232.141 230.995 232.244 
295.098 212.057 200 290.328 348.069 239.824 326.016 265.263 337.92 
334.534 346.107 337.186 273.723 223.234 346.986 343.328 273.798 324.177 
343.639 348.395 247.057 286.754 355.056 239.394 346.687 289.133 328.706 
237.205 341.667 342.384 242.666 242.533 261.603 286.887 247.207 367.782 
343.142 248.689 242.669 240.711 225.903 238.132 243.562 263.691 338.142 
318.054 340.6 299.342 324.979 372.014 256.121 229.963 277.625 281.798 
236.458 231.286 294.286 283.208 280.432 270.187 292.313 279.732 386.404 
390.73 229.149 265.359 224.47 437.678 235.302 389.636 225.164 202.963 
240.609 400.894 214.957 280.815 204.491 248.542 392.202 218.884 369.528 
372.274 434.41 421.129 312.595 434.116 242.771 236.696 200 213.47 
200 284.993 220.021 393.552 201.026 398.44 296.78 200 241.914 