# vtk DataFile Version 5.1
vtk output
ASCII
DATASET UNSTRUCTURED_GRID
POINTS 3625 double
0 2e-05 -0.030068 10.2866 22.2975 -0.032596 16.6548 18.2791 -0.030977 
8.92122 23.0134 -0.032457 19.6944 14.8659 -0.032032 3.04384 24.3911 -0.031701 
17.689 17.145 -0.03173 21.313 12.305 -0.032248 0 24.5895 -0.031977 
15.4933 19.2473 -0.031988 13.0129 21.0473 -0.031072 6.0062 23.8564 -0.031471 
20.5741 13.6468 -0.03113 12.8329 22.3261 3.9882 6.16175 24.7825 2.76245 
18.3745 17.6572 2.59749 20.5211 15.2206 2.89453 12.9852 21.5536 1.34322 
21.9022 12.6452 1.76848 15.6499 19.4334 0.787799 3.03734 24.8066 0.572881 
9.14181 23.582 1.74562 4.51286 24.049 -0.032264 21.0875 13.0656 0.350593 
6.10316 24.3835 1.20627 12.7925 21.974 2.51561 8.97077 23.1334 0.329576 
14.511 20.3378 1.02749 10.1681 22.4923 0.236837 17.8701 17.4164 0.661286 
0 25.2543 1.54281 13.8408 20.6177 0.531212 21.5851 12.4621 0.548047 
1.44458 24.8329 0.53848 14.1817 20.0478 -0.032141 16.1944 20.0655 4.06122 
17.0077 18.3962 1.22695 19.5492 16.4415 3.22803 10.6662 22.5918 0.869933 
12.0429 21.8191 0.688486 20.2259 15.1055 1.65264 20.8466 15.3288 4.66819 
19.3194 16.1137 1.50328 7.41795 23.3512 -0.031888 3.01891 25.3199 2.65892 
14.2484 21.027 2.76632 7.56619 23.7912 0.799331 18.8596 16.0803 0.441494 
15.8181 19.6389 1.55396 4.35244 24.5916 0.636277 1.88216 25.0063 1.11171 
6.36079 26.6255 22.1788 0 24.9011 0.385759 13.723 22.9834 11.4516 
19.1073 18.3433 8.94044 21.3205 13.2262 1.21713 21.6063 16.6908 19.7259 
19.2189 19.1684 16.4527 21.1633 15.5251 7.09372 17.2052 18.7583 2.76307 
9.99543 25.4162 20.3781 14.9048 19.8048 0.347969 3.4 27.2065 24.8923 
19.5184 19.2455 24.136 20.743 13.9955 0.98187 13.8556 23.6125 22.8889 
11.0356 23.0917 3.5605 17.3008 17.812 0.451353 6.06976 24.1774 0.526688 
6.10735 26.744 25.5809 4.01179 27.1473 29.7439 17.4674 21.1794 26.9762 
5.469 26.9028 30.3438 19.9995 18.8259 30.0807 0 2e-05 60.03 
18.6525 15.981 60.0323 0 24.7546 60.0311 17.6676 17.1466 60.0315 
21.2179 12.2501 60.0324 14.2049 20.0827 60.0316 10.2631 22.3007 60.0325 
7.44907 23.4044 60.0319 11.6588 21.6901 60.0317 4.51758 24.2413 60.0316 
19.0925 16.1211 59.488 21.8553 12.6181 58.695 4.32907 25.0004 57.8756 
20.4021 13.9867 59.624 13.2163 20.6488 60.032 21.6066 12.4745 59.4886 
20.0249 15.1128 58.681 21.3085 15.8978 50.2856 20.6568 14.0509 59.0951 
14.6978 20.4663 58.6746 11.9141 22.0665 59.1069 13.4906 21.3857 58.0555 
15.449 19.1915 60.0317 10.7564 22.4092 59.6142 4.42881 24.6527 59.0838 
18.4496 17.937 56.3411 7.74536 24.176 57.9147 0 25.0362 59.2159 
17.966 17.4407 59.2628 8.89947 22.9922 60.0316 6.02655 23.918 60.0322 
12.2849 21.266 60.0313 3.22413 24.3509 60.0311 15.8879 19.5748 58.2095 
9.79407 22.7692 59.5387 19.4967 14.9894 60.0327 0 25.5371 57.2631 
0.880074 24.4688 60.0325 1.08941 24.7521 59.61 16.2958 21.2153 48.6425 
6.01732 24.1406 59.4832 12.1637 22.4828 57.0881 19.3558 16.1374 58.6125 
14.4882 20.3286 59.4669 19.5759 15.1927 59.667 7.57836 23.7577 59.4746 
16.049 20.9594 51.8884 17.2622 18.6003 57.5817 1.33264 25.1042 58.508 
2.30728 24.7651 59.3798 19.7473 16.1489 57.305 9.04292 23.1805 59.2194 
16.7139 18.4551 59.5165 1.98838 24.3381 60.0321 15.1394 20.707 56.6677 
20.0509 13.8524 60.0323 20.9315 14.1945 57.8664 15.5205 19.4542 59.2628 
16.7827 18.603 58.8892 20.9803 13.2255 59.8157 3.40109 24.758 59.0227 
13.4281 20.9615 59.4012 10.0114 22.948 58.7749 8.95549 23.5503 58.349 
6.03701 24.5879 57.8952 12.8838 24.2324 33.5844 18.2608 20.3591 38.1037 
4.57198 26.9972 37.0564 22.0468 15.8776 43.6044 12.6289 24.2429 39.888 
16.0825 22.0912 39.7196 19.7566 18.9771 36.4885 19.0953 19.5115 40.2252 
16.0695 22.1879 36.2955 5.16486 26.9552 31.9253 16.4452 21.9524 31.7804 
9.33267 22.7977 -0.0324989 9.90101 22.4997 -0.0325567 8.34383 23.1432 -0.0322385 
10.7816 22.0694 -0.032088 11.681 21.656 -0.0314034 6.63891 23.63 -0.0316579 
5.32125 23.9447 -0.0318347 3.74236 24.2284 -0.0319687 14.8369 19.6479 -0.0320646 
16.0602 18.7747 -0.0314945 0.810261 24.5481 -0.0322077 1.94062 24.4757 -0.0321391 
17.1997 17.6815 -0.0313738 18.3411 16.4151 -0.0322709 18.9255 15.7518 -0.0323919 
20.546 11.8622 -0.0318328 19.2556 11.1172 -0.0312696 17.5614 10.139 -0.0309334 
15.8052 9.12513 -0.0306876 14.0491 8.11123 -0.0305054 12.293 7.09733 -0.0304313 
10.5368 6.08343 -0.030333 8.78069 5.06953 -0.0302079 7.02455 4.05563 -0.0301191 
5.26841 3.04172 -0.0300916 3.51228 2.02782 -0.0300723 1.75614 1.01392 -0.0299941 
20.971 12.9262 -0.0317304 0 1.9301 -0.0299894 0 3.86019 -0.0300208 
0 5.79027 -0.0300753 0 7.72036 -0.0301231 0 9.65044 -0.0301572 
0 11.5805 -0.0302158 0 13.5106 -0.0304134 0 15.4407 -0.0304332 
0 17.3708 -0.030571 0 19.3009 -0.0307675 0 21.1928 -0.0309831 
0 22.8366 -0.0317567 0 23.9327 -0.0320364 21.3129 15.7614 9.19145 
21.4111 16.0084 11.2912 21.4816 16.237 13.3942 21.5347 16.414 15.5025 
21.5759 16.5522 17.6141 21.681 16.6921 21.7171 21.7617 16.6553 23.7077 
21.8487 16.5796 25.697 21.945 16.4881 27.6852 22.0432 16.3908 29.673 
22.1148 16.2856 31.6616 22.1767 16.183 33.6506 22.2253 16.085 35.6403 
22.2334 16.0125 37.6314 22.2 15.9606 39.6231 22.1392 15.9147 41.6142 
21.7267 12.5439 1.09325 21.8196 15.8821 45.8337 21.5937 15.8862 48.0632 
20.964 15.9687 52.1143 20.5882 16.0457 53.9365 20.1548 16.1108 55.7463 
20.3522 15.1505 57.5918 22.0564 12.7342 57.6309 22.3336 12.8943 55.9516 
22.6153 13.0569 54.0063 22.8612 13.1989 52.0541 23.0558 13.3112 50.0941 
23.2215 13.4069 48.1305 23.3706 13.493 46.1652 23.497 13.5659 44.1977 
23.5905 13.6199 42.2278 23.661 13.6606 40.2566 23.7158 13.6923 38.2847 
23.7545 13.7146 36.3123 23.7764 13.7273 34.3396 23.7914 13.7359 32.3668 
23.7941 13.7375 30.3939 23.7895 13.7348 28.421 23.777 13.7276 26.4482 
23.7506 13.7124 24.4755 23.7155 13.6921 22.503 23.6684 13.6649 20.5309 
23.6075 13.6298 18.5592 23.5246 13.5819 16.5887 23.4188 13.5208 14.6195 
23.2802 13.4408 12.6532 23.1125 13.344 10.6898 22.9223 13.2342 8.72921 
22.703 13.1075 6.77267 22.4397 12.9555 4.82355 22.138 12.7813 3.00444 
20.3842 14.5089 58.9165 21.1961 13.4061 58.9151 0 25.0427 0.849711 
0 2e-05 1.97193 0 2e-05 3.97394 0 2e-05 5.97594 
0 2e-05 7.97794 0 2e-05 9.97994 0 2e-05 11.9819 
0 2e-05 13.9839 0 2e-05 15.9859 0 2e-05 17.9879 
0 2e-05 19.9899 0 2e-05 21.992 0 2e-05 23.994 
0 2e-05 25.996 0 2e-05 27.998 0 2e-05 30 
0 2e-05 32.002 0 2e-05 34.004 0 2e-05 36.006 
0 2e-05 38.008 0 2e-05 40.01 0 2e-05 42.012 
0 2e-05 44.014 0 2e-05 46.016 0 2e-05 48.018 
0 2e-05 50.02 0 2e-05 52.022 0 2e-05 54.024 
0 2e-05 56.026 0 2e-05 58.028 0 25.905 55.3233 
0 26.2123 53.3291 0 26.4787 51.329 0 26.703 49.3237 
0 26.8925 47.3148 0 27.0592 45.3039 0 27.1697 43.2892 
0 27.2702 41.2738 0 27.3494 39.2576 0 27.4044 37.2405 
0 27.4437 35.2231 0 27.4699 33.2054 0 27.4761 31.1876 
0 27.4705 29.1697 0 27.4555 27.152 0 27.4286 25.1343 
0 27.3843 23.1169 0 27.33 21.0998 0 27.2699 19.0829 
0 27.1886 17.0667 0 27.0609 15.053 0 26.9098 13.0409 
0 26.731 11.0311 0 26.5004 9.02647 0 26.2497 7.02435 
0 25.9489 5.02954 0 25.5788 3.06044 0 25.2384 58.4276 
0 2.01619 60.03 0 4.03236 60.0301 0 6.04854 60.0301 
0 8.06471 60.0301 0 10.0809 60.0302 0 12.0971 60.0303 
0 14.1132 60.0304 0 16.1294 60.0305 0 18.1456 60.0306 
0 20.1617 60.0308 0 22.1063 60.0314 0 23.6458 60.032 
20.4124 11.7851 60.032 19.0547 11.0012 60.0312 17.3255 10.0029 60.0309 
15.593 9.00257 60.0306 13.8604 8.00229 60.0305 12.1279 7.002 60.0304 
10.3953 6.00172 60.0303 8.66275 5.00144 60.0302 6.9302 4.00115 60.0301 
5.19765 3.00087 60.0301 3.4651 2.00059 60.03 1.73255 1.0003 60.03 
9.9523 22.8208 0.640372 9.38812 23.0008 0.46096 9.98788 23.0324 1.25958 
8.43971 23.3954 0.498186 8.30821 23.6927 1.24498 13.818 23.1187 13.3545 
13.8937 23.2368 15.2594 13.9391 23.3405 17.166 13.9285 23.4343 19.0737 
13.9001 23.525 20.9813 13.083 22.5153 5.67509 13.3302 22.6992 7.59426 
13.5262 22.8403 9.52303 13.7097 23.7437 25.0315 13.5221 23.8687 27.1713 
13.3191 23.9914 29.3099 13.1038 24.1123 31.4474 15.9639 19.8042 2.52536 
17.391 21.221 25.0611 17.3314 21.2197 23.1449 17.2823 21.1963 21.2285 
17.2333 21.155 19.3124 17.1778 21.1018 17.3968 17.1037 21.0216 15.4827 
17.0054 20.9174 13.5709 16.8909 20.7974 11.661 16.7563 20.6572 9.75383 
16.5904 20.4851 7.85167 16.4037 20.2891 5.95373 15.1794 19.9804 1.29672 
14.4008 20.6269 1.757 16.7859 21.6947 30.179 17.1267 21.4371 28.5776 
13.8123 20.8939 1.17231 16.2574 22.0701 34.0379 12.7988 24.2359 35.6856 
12.7139 24.2394 37.7868 16.076 22.1395 38.0076 12.6411 24.1398 41.8165 
12.6516 24.0232 43.7442 12.6605 23.8852 45.6704 12.6534 23.6937 47.5921 
12.6167 23.5023 49.5135 12.5526 23.2934 51.4323 12.4675 23.0612 53.3476 
12.3184 22.7718 55.2481 16.3227 21.4093 46.8591 16.2942 21.5884 45.0743 
16.2242 21.7563 43.2895 16.1521 21.9235 41.5046 16.1724 21.0873 50.2655 
15.5973 20.8691 54.2934 14.8728 20.5617 57.8793 12.0218 22.2461 58.236 
12.6181 21.7622 58.6368 4.98468 26.968 33.4846 4.78067 26.9824 35.2503 
5.88207 26.8 27.2618 5.66212 26.8547 28.9029 4.47574 26.9682 38.9967 
4.39351 26.9109 40.937 4.3257 26.8296 42.877 4.26588 26.7237 44.8161 
4.20915 26.5868 46.7532 4.16173 26.418 48.6881 4.1346 26.2193 50.6205 
4.13842 25.9804 52.5485 4.17986 25.689 54.4684 4.25714 25.3413 56.361 
6.23407 26.6847 23.8799 9.98437 25.3317 18.4548 9.95523 25.2406 16.532 
9.90074 25.14 14.6104 9.77234 25.0144 12.6936 9.65752 24.8829 10.7765 
9.57445 24.6801 8.86384 9.47865 24.4554 6.95423 9.36149 24.1665 5.0545 
9.24279 23.8668 3.18664 7.91104 24.495 56.1753 8.08305 24.7985 54.2187 
8.25504 25.0329 52.2434 8.42954 25.2179 50.263 8.6086 25.3829 48.2811 
8.77351 25.5087 46.2952 8.92252 25.6046 44.3064 9.06155 25.6684 42.3155 
9.17566 25.7145 40.3226 9.25619 25.7493 38.3278 9.32375 25.7713 36.3323 
9.39158 25.7747 34.3367 9.48332 25.7546 32.3422 9.58266 25.7251 30.3482 
9.68147 25.6834 28.3543 9.76725 25.6269 26.3602 9.84934 25.5663 24.3661 
9.92292 25.4921 22.3721 6.20634 25.099 4.54124 6.23229 25.4094 6.48537 
6.2493 25.683 8.43514 6.27726 25.9148 10.3901 6.31722 26.0869 12.3511 
[...]
CELL_DATA 15232
SCALARS EQ_STRESS double
LOOKUP_TABLE default
44.2718 53.895 43.1015 45.9129 52.8021 49.0966 52.8972 50.6989 53.9129 
51.1053 58.2554 51.5634 51.5674 50.3051 62.9626 51.5641 52.2341 57.8206 
50.8465 50.8301 65.976 54.0577 50.8403 50.7428 50.4165 46.0575 52.6504 
47.732 50.8478 50.4432 50.4249 53.5956 47.9982 53.671 50.9586 51.6422 
51.0006 54.3144 50.6741 51.3749 48.5867 65.9469 50.9725 52.5883 50.9224 
53.8275 47.1326 68.6206 50.1002 52.9057 51.3564 67.8875 53.3525 53.7712 
60.0444 52.7975 49.9473 62.2669 51.5186 50.7113 51.9671 51.9971 50.4203 
52.4794 63.0628 52.6324 50.9061 60.2646 54.2977 52.3975 46.9674 59.1493 
51.8344 50.9241 64.8333 47.3171 43.6344 47.4037 55.5632 57.1236 67.4569 
51.0643 51.0332 52.9258 50.9025 53.5927 53.3486 51.839 47.1153 50.017 
60.6274 50.4816 55.6584 51.1838 53.9932 51.5893 48.6267 52.7006 50.7433 
52.15 44.4851 52.776 67.7837 66.0287 57.754 68.4217 50.1631 50.1341 
49.7727 50.1703 51.2822 51.8806 53.2501 50.6564 50.4856 50.6709 50.8068 
51.7356 53.9405 53.714 50.8642 52.0099 50.9199 51.4136 52.3138 51.1877 
52.0015 51.0433 61.647 50.1194 51.4683 52.7805 56.0894 50.4857 52.2604 
50.7591 50.7759 53.1058 50.8615 50.1205 49.3113 43.8082 53.9857 53.0157 
57.5876 50.4363 43.1024 43.8951 61.3756 51.6751 53.9568 52.3332 50.5466 
50.2842 51.0351 50.4979 50.3783 54.54 51.1125 48.5984 43.9555 42.9188 
51.0549 50.8428 54.0489 50.5322 51.3969 50.9084 46.7197 51.7079 50.6847 
46.2309 46.5052 53.4336 50.8086 50.4776 48.4043 54.7967 51.4016 52.6087 
53.992 50.8253 53.2919 50.266 47.6259 50.327 48.5558 50.9787 46.9734 
49.5388 48.9716 48.3352 44.8176 55.8557 51.4205 46.0795 52.6781 50.0452 
44.2566 44.7682 48.147 52.2278 53.4904 48.3192 50.641 52.2743 50.662 
51.0025 51.58 51.2604 56.5684 50.9554 43.3561 43.5694 51.4089 54.0751 
56.1464 42.6288 50.6037 51.7081 58.4734 50.9644 50.9461 64.2773 55.1743 
48.1786 51.4322 45.588 51.0148 50.4442 51.2746 53.397 50.8783 51.1087 
50.6497 48.4398 51.9955 50.5997 52.7578 54.5873 49.9873 51.3302 73.2685 
50.4749 51.6478 49.4715 50.0081 50.3698 50.7277 48.1928 52.8094 53.7182 
50.3323 51.1836 45.4145 59.177 51.571 51.0532 53.4809 50.7942 50.7409 
61.5611 65.1636 56.0993 50.8044 50.8093 50.5437 48.062 55.838 49.7855 
52.9072 50.2668 70.0572 50.8159 50.8065 50.338 53.0082 52.8924 49.5612 
53.8642 50.8287 51.0426 47.3864 50.7669 50.677 57.0078 52.4356 57.5027 
50.7855 50.0516 55.2871 45.5981 48.6701 54.1836 51.0145 50.8788 51.376 
68.6203 63.3627 51.7065 51.8916 51.0963 53.0775 50.2884 55.7579 50.4423 
50.273 50.621 54.5256 50.5728 53.6048 50.8437 51.4904 64.4436 57.1906 
66.3487 49.6551 51.3416 53.8907 45.346 51.9929 51.6673 50.3746 50.1475 
50.1827 51.2587 50.4045 51.0201 52.9566 51.203 53.5417 51.0248 50.7834 
51.5736 51.1938 51.1383 50.7037 50.9557 46.0907 51.5594 49.7454 50.7669 
50.5475 50.9268 50.7299 52.3063 53.1924 51.2323 54.0822 51.0785 51.5262 
50.3996 51.1528 50.9998 45.1944 50.8202 48.6674 50.8517 50.4957 50.9886 
51.6933 50.7342 51.2822 50.9774 50.6214 50.9688 50.7474 50.8062 64.2573 
61.7554 68.1298 57.8371 51.1292 46.3748 47.2177 53.1858 50.1811 61.0134 
47.4594 50.145 61.3296 64.2693 50.6722 50.7053 50.9801 51.1045 52.8 
48.3923 49.1134 52.2562 51.9298 50.5835 51.2231 49.0595 50.5845 54.564 
68.1009 50.8453 50.5723 50.7085 65.4618 51.0331 53.2203 53.7919 50.8259 
50.7393 50.3 51.842 50.0649 50.1633 49.979 53.898 51.9126 50.0411 
49.9877 60.0468 53.1827 53.4702 47.1446 44.7166 53.4398 52.6013 44.2128 
53.4595 53.1089 52.9901 50.9183 50.9131 62.6701 50.7064 50.8488 66.4338 
49.9605 50.911 54.0598 52.2891 53.8317 53.9874 53.0223 50.9532 53.3288 
66.9348 52.0127 50.655 52.5561 50.4271 50.2978 50.4911 55.4145 60.0423 
51.6717 57.7391 47.3678 52.902 50.4763 51.2089 49.9448 52.3933 51.8022 
49.0202 50.1446 51.1539 50.2259 50.4864 51.0357 50.959 68.263 51.7167 
64.3758 50.9244 62.3374 51.3858 55.732 48.8999 50.1787 50.0919 50.8294 
50.63 50.2218 52.9675 51.3966 53.9705 51.23 47.7738 50.7971 50.7391 
60.4146 51.9576 47.0001 50.7039 52.6052 52.9228 57.8113 69.0716 53.0533 
53.2897 50.7092 52.1649 52.9503 53.7887 54.2297 53.932 50.8074 51.3936 
44.8232 43.4628 43.3491 43.838 51.7425 43.5676 48.4284 46.5388 53.37 
62.8235 50.2403 52.2729 51.6089 51.7629 65.1277 59.6219 55.2148 50.913 
54.2515 53.9105 53.9083 58.3179 62.7826 64.0775 60.113 51.3039 57.8548 
51.0322 53.6619 53.2986 50.6969 50.3846 60.2121 50.5232 52.3163 52.9142 
52.2433 48.9756 52.3597 55.1461 50.1643 50.8356 46.5559 48.4468 50.7637 
52.2054 50.6364 52.9987 50.5188 50.7526 52.7102 44.0273 48.0372 57.9532 
51.7613 52.6029 50.4849 50.8063 51.3078 53.1215 50.8466 44.016 51.3567 
44.1921 52.2324 50.2814 48.2082 50.822 51.5211 50.7913 51.2402 50.8772 
50.9161 53.9806 51.0152 51.9304 65.5985 50.5491 50.2107 54.0996 53.729 
51.8629 52.1655 51.2275 65.7434 48.3724 50.3646 50.704 50.795 50.7838 
55.9981 53.0548 53.8906 53.4926 51.2718 50.9969 51.1139 50.719 50.2478 
50.8218 50.605 51.9755 50.8621 51.562 51.3839 59.7452 43.2089 45.156 
51.5516 43.9582 52.8855 50.8967 50.2852 51.0213 53.0974 53.2707 52.6979 
51.1008 52.1992 51.051 54.2399 52.5144 50.8495 52.1099 51.8959 49.4733 
57.0568 58.0992 44.8022 47.7784 49.0581 46.6468 50.1843 58.8276 50.8313 
55.7194 57.698 52.1399 62.3093 53.6332 53.7286 54.0363 54.0731 50.6168 
51.0932 51.0795 51.1663 50.9096 50.8089 51.1718 61.5181 50.7624 53.2359 
51.9222 52.5778 51.0638 50.7111 50.6935 50.9239 53.9691 51.5385 50.9001 
53.7181 53.1742 50.6087 47.7314 46.4974 50.8284 50.5077 48.3033 50.4449 
52.5247 53.4327 51.2449 51.4001 51.343 50.7066 51.1699 50.4735 53.8826 
54.1735 50.4596 50.6939 50.5431 50.8783 50.964 51.4959 55.3027 50.1545 
56.8908 50.0513 51.0226 50.6549 50.0882 51.8108 50.5357 51.058 51.9613 
54.0448 53.7128 53.5769 52.1055 51.4798 50.0414 44.4747 45.6764 43.5118 
45.6179 43.4593 50.6698 50.7444 51.8089 50.7482 51.1916 47.514 45.2137 
67.3179 57.9176 53.9362 56.0453 52.5542 50.9191 51.5494 51.0294 51.4722 
45.0631 47.3524 56.3486 50.9691 50.8212 51.0564 52.2414 51.5832 73.1845 
51.448 52.9131 51.2157 50.9668 53.2709 50.2096 50.8618 50.2043 53.5136 
50.3268 50.8038 50.9634 50.8947 51.4369 51.2693 47.9924 47.1856 50.3598 
52.7396 50.02 50.0764 52.4549 54.0978 51.1402 51.1519 50.5763 50.7603 
71.8146 49.1293 53.3895 52.5877 52.9741 50.5184 52.4114 47.1722 48.6234 
46.2744 53.7853 45.0556 51.5201 51.3681 52.3629 53.7163 52.3389 64.625 
62.9207 50.7433 68.5095 59.1774 50.7705 51.2327 50.8526 63.6222 56.3686 
51.1529 46.0515 45.0544 45.3862 42.9872 50.9085 50.7099 50.626 46.8917 
46.4545 44.5547 51.4756 50.6689 50.8467 50.9567 50.7617 53.2636 51.358 
52.2428 50.6349 50.9127 50.5224 53.3181 53.3623 50.0237 51.6837 66.8505 
66.513 63.1938 63.2594 51.7001 51.5886 51.5768 52.946 50.3771 45.4626 
50.3721 51.9026 44.3955 50.3508 50.5651 50.9505 50.5477 50.4833 50.9454 
54.1074 50.7338 50.8107 53.3858 50.6802 51.7991 50.9683 68.2863 51.1232 
53.8135 50.2751 51.2314 50.7794 48.9771 51.0048 51.4905 50.9505 50.6887 
53.1832 53.4727 52.3807 51.0224 46.0579 46.3479 55.5042 47.702 45.9553 
55.5311 50.5269 50.4505 50.7172 52.9528 55.037 68.7427 50.2876 50.1693 
57.4783 46.0631 48.0092 45.0228 44.055 48.3894 47.8032 52.581 46.4998 
46.5536 59.2452 50.3441 53.9245 51.1419 48.8926 53.842 46.6836 57.6844 
64.0155 42.4434 45.2817 43.5251 47.1219 48.0064 60.5454 49.4165 51.9358 
50.6243 53.7935 55.7045 59.781 75.469 63.9705 48.5529 64.7762 54.5396 
55.5432 56.168 47.9967 51.7235 46.6677 44.1522 52.1763 52.8077 48.853 
52.991 51.3009 51.0491 50.6438 50.6191 50.157 51.6826 50.7438 53.1183 
56.5364 47.4436 50.5469 50.5286 68.0294 51.4513 53.1723 52.6115 57.9132 
53.2159 51.0142 52.6949 51.3561 68.1329 50.9376 75.3571 74.7188 58.1961 
60.1242 53.1413 50.8673 54.9791 59.6522 52.1752 52.8822 50.6838 52.6117 
50.7281 50.9374 51.1573 50.4248 52.0466 50.7094 50.7275 51.7748 50.2307 
51.5378 50.2211 51.9479 50.334 50.017 67.871 50.8457 51.4982 51.5362 
51.2049 50.8833 50.2492 52.454 50.9808 53.845 53.9679 51.8711 50.8639 
50.8925 50.9063 49.3299 42.6572 44.5921 50.7805 51.2885 61.7881 50.4702 
51.3532 50.8178 50.8278 51.2215 49.2693 48.4965 52.0696 50.6962 50.485 
53.2251 51.9608 51.4311 52.5457 52.9802 66.6481 59.122 51.2345 53.2926 
59.53 50.8697 50.9123 50.8989 51.2924 51.0383 51.7174 51.2283 50.9688 
50.9865 50.7349 50.9206 50.8649 50.1299 47.3774 59.157 48.6549 45.3749 
51.7731 50.1615 66.9811 64.5236 50.5584 50.5625 50.9213 49.979 48.7248 
50.9327 47.4426 53.905 51.1429 51.5168 45.2748 50.6043 48.3243 53.608 
49.1499 50.6696 51.4685 50.598 46.5012 54.6386 50.3768 47.9328 50.7169 
50.2663 50.7379 51.5186 51.6094 50.9092 50.1716 50.4292 53.117 52.4438 
50.2305 50.5065 49.8486 53.8104 57.1999 50.6586 50.5519 51.7815 51.2575 
51.4299 52.881 51.6168 55.5176 54.0427 53.9558 68.3777 62.9442 67.3159 
69.6955 47.1528 54.6385 49.8864 50.8373 50.9694 50.8895 49.5609 50.1229 
51.6171 51.3976 50.8497 58.4014 69.8474 54.2045 54.7915 51.1378 51.5262 
50.0225 50.3693 50.8623 52.1249 55.9583 67.4201 54.6407 50.6967 54.8666 
58.4186 51.3944 52.7722 52.081 53.5871 50.957 53.281 51.0033 47.3587 
51.5162 50.8861 50.8468 56.4198 51.1399 53.6594 50.7713 53.8455 53.4786 
53.6191 53.9502 63.7566 69.1055 52.2186 54.647 53.2819 44.4173 53.2286 
50.8364 56.4358 51.384 52.0342 51.0441 67.6721 51.0784 51.5238 51.1965 
65.6679 52.4875 52.937 50.7987 48.6512 52.0943 50.3773 58.8542 52.23 
53.9801 53.6713 54.1674 53.9929 54.2024 51.1129 62.3975 55.2571 61.5864 
62.2818 46.0828 44.1177 46.3977 46.3157 51.9726 53.3215 53.1992 48.8444 
53.4014 53.9082 69.9366 51.3492 53.7856 53.9697 53.583 53.9636 47.2675 
47.5865 51.5239 50.5995 50.3099 50.3726 50.6231 51.7754 50.1499 50.5286 
50.3328 50.9199 65.3909 50.495 50.8229 51.2065 51.2216 52.3995 50.8757 
51.3146 52.0651 53.0317 51.281 51.3804 51.413 51.0011 50.9073 44.8724 
43.6952 41.9156 50.263 50.4682 42.5659 44.8644 45.5627 50.1547 49.493 
50.1551 52.2621 49.6598 51.0343 49.9456 59.1371 57.9657 46.6915 51.0285 
50.4447 50.2581 50.1144 51.0124 50.8483 50.6052 52.9891 51.1592 48.2984 
50.84 49.7811 53.2201 60.3394 69.515 55.2068 63.161 55.3192 57.7646 
61.8554 53.5546 51.5744 51.0675 50.0436 50.2336 52.1466 54.9664 51.601 
69.0016 58.2143 66.649 52.331 50.5174 50.9859 50.9884 61.5215 51.2746 
53.1927 49.6627 49.8627 60.3333 52.9792 53.3354 52.891 53.8597 55.8336 
63.7136 47.6259 55.8635 68.0261 62.4142 68.4288 53.3705 44.7692 47.917 
45.4656 50.9004 50.8169 50.1501 50.4124 50.7959 51.8266 50.9341 52.492 
51.7695 51.5473 53.2659 51.4065 50.8574 50.2089 51.8557 50.9622 50.4044 
50.7521 49.1823 51.9694 50.5964 48.1977 48.5672 50.4467 51.8162 52.5418 
50.2588 52.6682 45.4154 52.8888 48.6124 51.5234 53.0421 47.2289 52.8695 
50.6995 50.1982 51.269 51.245 50.5064 50.88 51.0568 53.43 50.3454 
52.425 65.2732 62.1502 61.1856 62.4413 51.0068 66.2558 64.8973 64.6915 
43.6927 45.6965 51.0684 53.5389 58.3824 50.5247 53.6061 62.9335 62.5128 
53.6397 51.2072 51.1566 50.9994 47.8102 51.0713 51.0542 51.4486 52.3336 
50.1994 50.7917 64.1382 56.4728 50.3837 50.1187 44.9888 47.0974 50.8083 
50.3746 52.3677 53.7429 53.3424 52.785 50.9102 51.0641 50.8102 51.4445 
52.9558 53.1884 47.8683 51.9302 52.3814 53.3543 65.6573 66.1489 52.3212 
51.2573 52.1161 51.1888 46.1617 52.1968 50.1006 50.2159 47.8302 51.8416 
50.9195 50.8215 50.1316 50.1932 51.8932 52.4172 50.7257 50.1274 50.1191 
50.9367 50.8328 51.0854 52.3554 50.828 50.9178 52.1187 49.2216 46.4056 
45.731 48.4423 48.0481 46.4513 63.194 50.0726 49.9612 51.4881 50.6332 
50.0652 71.4733 72.0311 52.5077 51.654 50.1761 50.7772 50.101 51.133 
52.1038 46.1935 51.6503 51.2197 53.1023 50.9212 47.9406 50.4589 49.8731 
50.9327 46.4133 51.2362 50.641 50.6534 60.4962 51.3645 51.5476 52.468 
51.0951 51.0477 62.6733 50.006 51.3897 51.0355 51.0202 53.992 53.8494 
53.5906 50.9944 50.9886 51.1598 52.6036 51.4788 50.815 51.5436 51.0845 
51.0526 61.5816 69.6915 55.4496 54.2775 50.1645 50.9507 50.7396 53.3628 
63.7655 50.8436 52.4334 51.0141 50.8294 50.4428 49.5494 50.7221 50.8064 
61.3181 50.908 51.1528 51.0974 50.0035 50.1601 52.4945 50.4785 50.1318 
50.6447 51.2875 50.0547 49.4732 52.7846 47.9967 53.4783 58.4508 50.294 
51.3052 67.1768 52.2172 52.6157 53.4975 52.6932 50.5503 50.8593 50.8272 
50.4783 50.3134 64.869 51.822 50.9841 43.3486 45.7362 51.9103 51.8545 
50.9336 52.632 50.1351 51.752 50.9723 50.5966 51.0234 50.6294 51.0996 
51.4848 52.4197 52.8934 50.0165 50.0019 46.5841 43.2986 49.1564 46.5995 
51.0762 51.0758 51.6482 50.9014 58.7682 54.6422 61.6267 66.9937 49.4075 
50.7943 52.5743 52.4092 61.8182 59.6758 52.0944 50.9565 50.3863 50.8008 
47.9977 49.8085 46.8369 47.641 43.2523 52.3789 49.3261 50.5558 50.1605 
50.4016 51.1917 50.4629 54.9122 49.3608 50.5344 51.7341 51.0103 46.7645 
45.7086 47.5551 43.0913 48.6337 52.334 51.1901 50.6062 52.4223 51.0422 
50.7064 50.6041 51.5314 51.8827 50.26 51.2976 66.3601 69.4517 69.9091 
64.3666 53.0093 50.2141 50.0977 51.4566 50.402 52.5778 50.1429 58.8417 
49.6537 55.2451 59.0538 51.9236 50.3077 51.5623 53.4989 53.4797 54.1841 
54.0017 53.432 52.2387 50.0543 51.3477 50.2004 50.8962 51.9283 51.7926 
52.073 50.6835 52.3928 52.4949 52.5595 45.5429 48.0515 51.6231 57.3335 
63.3484 50.9126 51.8174 68.5232 52.4747 70.2257 68.4621 67.7088 49.3401 
51.8195 51.1669 50.1505 66.4238 62.4242 48.7926 45.8327 47.7244 48.4488 
45.7536 54.0907 53.4592 54.0815 51.4157 53.0248 53.4648 53.7402 50.1484 
66.197 64.0826 51.3731 51.1705 50.2017 51.0349 51.1323 52.3246 51.3527 
53.8179 53.4047 51.5136 49.2233 50.0373 50.8188 49.6639 46.7943 50.7716 
50.7224 50.7364 50.9332 47.8429 45.7895 50.057 51.2859 51.047 48.9874 
56.9601 52.0942 51.4659 51.4174 57.3714 49.9912 60.3478 50.9776 51.0291 
52.862 50.8981 69.1483 60.1984 59.4653 49.8049 48.4782 54.1001 53.3998 
41.7649 42.5736 50.5606 50.3422 50.7344 53.0703 51.2126 51.0158 51.4982 
50.8556 61.9024 52.0428 50.2723 67.9789 52.1516 64.5008 51.3431 50.9853 
50.4172 50.2987 69.6618 50.7158 52.5228 60.0101 52.1346 52.4111 53.2581 
52.8472 52.4073 48.9778 52.7621 65.4476 52.7997 50.4485 51.8412 50.943 
46.9301 46.5146 48.3881 50.8476 52.7652 51.5441 51.5347 51.3725 59.9965 
63.7668 65.1718 51.3309 51.0771 50.9864 50.5629 52.1581 49.4379 51.6728 
47.4223 45.6362 46.4787 50.4945 51.5235 51.161 60.9271 51.1555 51.4857 
59.2034 55.8959 54.5121 47.9123 51.3818 59.4656 51.0231 50.9714 51.6996 
50.9617 50.8646 55.2777 52.5831 50.9163 52.0446 50.9661 51.8692 50.885 
50.9883 44.7079 49.6988 51.754 68.008 60.4827 57.7488 51.8929 48.9921 
50.536 48.0426 47.2975 49.068 47.8961 51.4424 51.0717 51.5178 51.0327 
49.1754 47.4747 50.745 50.2702 50.6931 50.2723 50.1675 53.3905 50.7938 
50.0593 52.4862 56.8394 51.3997 51.9406 51.4688 50.9902 52.1889 65.2393 
64.2281 48.0261 53.1979 56.3869 49.4468 59.0621 61.3714 56.5694 43.6882 
45.9353 56.2518 51.4568 56.5941 51.2582 50.7328 50.7164 50.9645 52.0248 
53.2404 50.8055 50.9014 50.2857 51.4756 50.4901 50.3983 50.6512 50.8419 
50.9801 52.6079 50.9966 50.8585 47.1949 48.4694 49.6808 48.289 52.6507 
50.7897 52.6277 50.0134 51.4313 50.4649 55.3712 50.8578 51.0455 42.7792 
43.2656 50.9386 52.0438 58.4192 51.7895 50.4801 51.1286 51.2038 50.2367 
52.0779 51.2558 50.4651 59.4492 65.5638 51.1224 53.9279 51.2344 55.8133 
52.7355 50.713 51.9747 50.2225 45.0441 46.6646 53.0975 45.3192 44.2158 
48.1471 53.3816 52.0871 52.3537 53.1235 64.4039 64.967 52.175 52.2025 
52.5033 50.7494 51.8817 50.842 50.6309 52.2591 52.1675 50.2907 67.6801 
68.6954 67.1649 67.0999 50.7107 51.702 47.7258 47.2506 46.3171 47.4722 
45.9152 44.5198 50.9481 50.9207 50.6284 50.4566 53.4904 50.1601 51.7642 
50.6984 68.7188 51.3469 51.096 52.4923 50.3839 50.7799 51.352 51.8389 
50.9997 51.0411 50.918 50.0623 54.5019 51.0249 52.2616 55.9592 53.1031 
53.7591 54.0648 51.48 52.368 51.6752 51.9875 69.9819 61.7338 70.1111 
61.98 51.9382 58.15 52.3808 51.5979 50.3357 51.7199 43.1196 43.8466 
46.0707 50.761 53.2325 53.3006 53.3843 53.752 66.3651 51.2653 52.1217 
52.5904 50.778 50.1277 50.5408 50.9625 50.8638 51.546 52.5643 48.546 
44.5747 49.4469 47.3889 59.3754 66.3384 50.9951 50.8377 51.3968 50.9779 
51.8972 49.8724 50.8186 44.6665 52.2418 50.9149 51.376 51.7215 50.3525 
50.1618 50.5478 50.4723 51.108 51.6849 50.8777 50.7359 50.9169 52.6825 
52.8351 60.815 62.3353 50.7478 50.991 52.3909 54.2828 59.053 64.8732 
51.1579 50.2231 51.3862 50.7412 53.8949 53.1298 54.039 53.5512 54.023 
46.736 53.5109 45.0973 46.8558 53.7464 53.6087 53.7305 53.6118 63.9232 
68.541 69.5622 49.3548 50.1656 50.1687 50.2168 50.9012 52.4524 51.6394 
52.0566 49.611 51.7581 50.0253 50.6512 50.8221 50.2959 50.4488 50.3897 
48.2062 66.8813 59.5101 50.5529 50.9688 51.3002 51.4164 52.305 52.2823 
51.0118 52.7218 50.9195 50.8127 51.1119 48.7389 46.3487 51.8952 50.6989 
50.9232 52.3662 51.479 44.8038 45.0155 47.6046 52.5008 50.6037 53.1403 
68.0116 68.2483 69.8357 50.4549 50.7566 49.9285 49.5006 51.9056 50.2073 
49.5432 52.3343 48.1147 48.9753 47.2659 44.306 51.4654 53.4524 53.2284 
50.8357 65.3926 51.0729 50.9355 50.9338 67.2306 55.2472 64.5271 53.4905 
55.6412 50.963 51.0012 51.0841 52.656 50.6331 52.1458 50.4221 50.1197 
50.5565 48.4929 51.8972 50.4593 50.0621 50.0147 50.167 66.6697 60.7135 
67.5372 55.8751 52.3453 56.8653 63.8991 61.8707 57.5999 55.9872 50.9738 
50.8332 51.0152 50.5652 50.4945 50.8008 50.6735 53.583 42.2756 49.5729 
49.0005 43.726 46.0571 46.1724 42.8439 50.2277 64.1959 57.94 52.2719 
52.052 53.3352 52.9476 53.6177 53.6839 50.347 51.2875 57.4034 53.2094 
53.8935 53.5897 53.965 52.7477 49.9989 51.2984 53.3687 50.7225 66.7341 
50.8597 66.224 53.5979 52.7534 52.1004 53.318 51.0004 63.4917 68.5903 
50.6981 50.4598 50.6553 50.0426 50.2693 50.1322 50.5191 50.7135 50.8759 
50.24 51.3936 51.6205 51.5175 50.3093 51.3969 50.3878 50.826 51.0887 
51.5214 63.6386 61.6529 60.886 60.7855 53.0841 51.48 50.4936 52.0225 
67.7832 68.0191 53.3637 58.2088 63.9556 54.0181 53.8823 53.936 53.8903 
50.3964 50.0373 52.0312 53.1834 53.3718 52.9315 50.674 51.1655 51.933 
52.1546 50.8639 52.398 52.0711 51.9134 50.1865 51.56 51.1363 51.6804 
53.5919 50.5126 50.7919 52.8565 51.092 48.7806 50.8614 51.6064 50.9203 
50.8518 54.4473 50.8901 51.5641 46.0873 51.7138 51.4035 50.7201 50.6438 
50.6401 53.7793 53.8129 52.3925 52.3471 51.1776 51.0713 43.0339 44.4468 
51.0127 50.8048 70.7635 53.8092 55.5384 52.5476 49.2292 53.4298 50.2791 
52.0232 46.2628 49.408 47.9575 50.5906 51.0292 53.3379 50.978 53.5684 
53.8517 66.847 59.5128 66.6755 63.2054 67.4882 62.4905 51.5544 58.1103 
50.192 50.3661 51.0101 51.3945 50.2556 52.6068 52.3867 51.4692 51.9703 
53.2159 52.7771 51.3654 52.9635 46.8456 48.6563 51.3196 49.1471 42.6014 
43.8205 42.8782 45.4802 65.3013 57.2153 60.1879 69.6934 65.9654 63.8994 
50.9744 50.7547 51.1619 50.8328 50.2822 50.0429 50.8461 50.8147 42.7174 
61.4674 57.8066 51.4324 50.3414 50.4413 47.0977 50.1755 51.5031 57.9519 
50.7822 49.4489 51.2608 52.476 51.0003 51.6146 57.9415 56.3868 63.1319 
53.9144 50.3884 50.278 50.5109 50.7134 50.2087 50.0959 50.4797 62.0511 
50.7868 52.7677 65.9906 54.2036 54.2019 61.7006 58.5411 62.6673 61.5632 
50.8782 50.6795 50.9959 50.9758 62.911 51.059 51.4675 46.7622 48.4849 
59.3703 65.043 66.2136 47.2284 45.6222 44.1177 50.7705 50.4345 53.5815 
51.5131 64.3124 63.3074 52.6909 51.0771 50.7099 50.9458 67.3104 53.5429 
49.561 54.5538 53.8536 53.1438 50.8869 50.713 50.3463 52.7579 53.2704 
53.2449 52.8813 50.9748 50.902 50.8682 51.0473 51.6452 51.6851 50.7627 
49.0005 50.3022 52.382 51.4101 52.7759 49.083 52.3095 49.9219 53.0865 
49.8707 49.9153 51.0416 50.2687 54.4654 50.891 50.9835 53.2584 51.3827 
51.7743 50.962 51.2904 50.9444 51.8961 52.1532 53.0915 52.8075 53.0095 
58.162 51.4346 50.3456 51.4311 52.2611 51.9849 50.9275 73.6787 50.6146 
71.1307 57.4923 59.1314 64.8071 49.2196 49.1512 49.1132 47.9228 51.6991 
63.0973 48.4088 50.5215 65.6122 50.4966 50.6729 53.4729 66.6267 53.9207 
71.1307 43.2911 43.7488 46.4369 50.1206 45.8883 54.1264 50.8126 50.555 
51.0858 50.7784 50.6944 52.6298 53.5571 53.0068 53.1761 54.1869 52.6725 
53.717 50.2664 51.0831 61.2356 47.6469 49.9763 48.1306 52.4851 52.3968 
52.1055 50.791 51.9591 50.9302 51.2575 50.1712 50.4808 50.1586 50.887 